[Molden Format]
made by pyscf v[2.3.0]
[Atoms] (AU)
C   1   6    -9.38993572939632     6.16549604305095     0.00000000000000
O   2   8    -7.93342931888780     7.96389170401579     0.00000000000000
H   3   1   -10.03896216687819     5.26213136646387    -1.75982635076246
H   4   1   -10.13873970625522     5.34293605555027     1.75982635076246
[GTO]
1 0
 s    3 1.00
             71.616837    0.15432897000916
             13.045096    0.53532814003178
             3.5305122     0.4446345400264
 s    3 1.00
             2.9412494  -0.099967230075964
             0.6834831    0.39951283030359
             0.2222899    0.70011547053201
 p    3 1.00
             2.9412494    0.15591627210511
             0.6834831    0.60768372820466
             0.2222899    0.39195739529202

2 0
 s    3 1.00
             130.70932    0.15432896872316
             23.808861    0.53532813557095
             6.4436083    0.44463453632131
 s    3 1.00
             5.0331513  -0.099967228656673
             1.1695961    0.39951282463148
              0.380389    0.70011546059208
 p    3 1.00
             5.0331513    0.15591626847816
             1.1695961    0.60768371406861
              0.380389    0.39195738617424

3 0
 s    3 1.00
            3.42525091    0.15432897070298
            0.62391373    0.53532814243847
             0.1688554    0.44463454202535

4 0
 s    3 1.00
            3.42525091    0.15432897070298
            0.62391373    0.53532814243847
             0.1688554    0.44463454202535

[5d]
[7f]
[9g]

[MO]
 Sym= A
 Ene=    -20.31036967
 Spin= Alpha
 Occup=    2.00000
   1    0.00053058332350032
   2    -0.0070358102343561
   3    -0.0039045338054214
   4    -0.004821055477907
   5    1.0808817864221e-09
   6      0.99430309681336
   7     0.025775577810285
   8    -0.0034672786996535
   9    -0.0042811614264527
  10    5.9686437270193e-11
  11    0.00019166150720206
  12    0.00019165933742056
 Sym= A
 Ene=    -11.12308753
 Spin= Alpha
 Occup=    2.00000
   1      0.99262890586467
   2     0.032863576903057
   3    0.00032129109145213
   4    0.00039674632473749
   5    -1.2398525582862e-08
   6    0.00015174642661802
   7    -0.0056803709205731
   8    0.0010754276645079
   9    0.0013278623602825
  10    8.9016448984119e-10
  11    -0.0065138654613204
  12    -0.0065138520752514
 Sym= A
 Ene=    -1.331693484
 Spin= Alpha
 Occup=    2.00000
   1     -0.12157966172778
   2      0.27784714388539
   3     0.098421922684549
   4      0.12152479154046
   5    -5.3591394211454e-08
   6     -0.21959638467543
   7      0.77175487924394
   8     -0.10519251628226
   9     -0.12988451416869
  10    -1.8666254551242e-08
  11     0.031929142365744
  12     0.031929064961467
 Sym= A
 Ene=   -0.8072877046
 Spin= Alpha
 Occup=    2.00000
   1     -0.18619665409551
   2      0.57920680736031
   3     -0.14021412278252
   4     -0.17312541746101
   5    -7.1536029375198e-07
   6      0.09923958255969
   7     -0.43128838322754
   8     -0.10389020584986
   9      -0.1282761207264
  10    -2.9208461467961e-07
  11      0.26445648902166
  12      0.26445570128126
 Sym= A
 Ene=   -0.6315407922
 Spin= Alpha
 Occup=    2.00000
   1    -2.3474365136886e-07
   2    9.1576684247564e-07
   3    -0.015108061660674
   4     0.012235670516508
   5      0.53294428820237
   6    1.1049101242365e-07
   7    -5.1535318797239e-07
   8    -0.012342862826834
   9    0.0099957747201612
  10      0.43539320885466
  11     -0.30393466460586
  12      0.30393515091797
 Sym= A
 Ene=   -0.5424465238
 Spin= Alpha
 Occup=    2.00000
   1      0.03246789572945
   2     -0.10714782421827
   3     -0.28350661662842
   4     -0.35005272312911
   5    1.9268844422787e-08
   6    -0.092999430724209
   7      0.49418243221995
   8      0.42507025410234
   9         0.52484880338
  10    2.1541023908775e-07
  11      0.16047517645723
  12      0.16047542335292
 Sym= A
 Ene=      -0.4383744
 Spin= Alpha
 Occup=    2.00000
   1    -3.7266506653389e-07
   2    1.553908051792e-06
   3      0.47431070936616
   4     -0.38414219011992
   5     0.022265277958351
   6    -1.7919461595578e-08
   7    1.7100140159146e-07
   8      0.52519508467466
   9     -0.42534998988676
  10     0.024653837827299
  11    1.4035843933691e-07
  12    1.4035943368047e-07
 Sym= A
 Ene=   -0.3548123923
 Spin= Alpha
 Occup=    2.00000
   1    -6.044405731565e-10
   2    -1.3404750754145e-07
   3    0.0050733182384879
   4    -0.0041087103053535
   5     -0.17896287459527
   6    1.1028510947662e-08
   7    -7.2817126676897e-08
   8    -0.024773467635075
   9     0.020064016549661
  10      0.87390583240011
  11       0.3533742478472
  12     -0.35337448335441
 Sym= A
 Ene=    0.2795017849
 Spin= Alpha
 Occup=    0.00000
   1    -7.5599705456769e-07
   2    4.1682763271557e-06
   3      0.63612654255456
   4     -0.51519689031207
   5     0.029861317183528
   6    4.6546487341683e-08
   7    -1.2270927316139e-07
   8     -0.59481129838021
   9       0.4817340694308
  10    -0.027921839961138
  11    -2.2521589211395e-06
  12    -2.2521629730092e-06
 Sym= A
 Ene=    0.6256340494
 Spin= Alpha
 Occup=    0.00000
   1     -0.20762087141699
   2       1.2969183251192
   3     -0.28089715210974
   4      -0.3468235717996
   5    6.2114467802749e-06
   6     0.027190492258106
   7     -0.15536938216955
   8      0.15176832184414
   9       0.1873896821327
  10    -2.0151285842917e-06
  11     -0.88901468164242
  12     -0.88902413685756
 Sym= A
 Ene=    0.7363977076
 Spin= Alpha
 Occup=    0.00000
   1    1.2397323669616e-06
   2    -8.4903060004004e-06
   3    -0.032593381231048
   4     0.026401845172783
   5       1.1498375391476
   6    -7.3838801064373e-08
   7    3.348899310435e-07
   8    0.0088443518391155
   9    -0.0071638287828451
  10     -0.31200597143979
  11      0.84151842411064
  12     -0.84150598764604
 Sym= A
 Ene=    0.9006066572
 Spin= Alpha
 Occup=    0.00000
   1    -0.095680926050822
   2      0.62693953981506
   3      0.73086213943148
   4      0.90241797493197
   5    -8.7338312606435e-07
   6      0.11490292083077
   7     -0.84880383798052
   8      0.57965398158606
   9      0.71571808903507
  10    1.9621025325604e-07
  11      0.14807962893002
  12      0.14808137413766
