[Molden Format]
made by pyscf v[2.3.0]
[Atoms] (AU)
C   1   6    -9.38993572939632     6.16549604305095     0.00000000000000
O   2   8    -7.93342931888780     7.96389170401579     0.00000000000000
H   3   1   -10.03896216687819     5.26213136646387    -1.75982635076246
H   4   1   -10.13873970625522     5.34293605555027     1.75982635076246
[GTO]
1 0
 s    3 1.00
             71.616837    0.15432897000916
             13.045096    0.53532814003178
             3.5305122     0.4446345400264
 s    3 1.00
             2.9412494  -0.099967230075964
             0.6834831    0.39951283030359
             0.2222899    0.70011547053201
 p    3 1.00
             2.9412494    0.15591627210511
             0.6834831    0.60768372820466
             0.2222899    0.39195739529202

2 0
 s    3 1.00
             130.70932    0.15432896872316
             23.808861    0.53532813557095
             6.4436083    0.44463453632131
 s    3 1.00
             5.0331513  -0.099967228656673
             1.1695961    0.39951282463148
              0.380389    0.70011546059208
 p    3 1.00
             5.0331513    0.15591626847816
             1.1695961    0.60768371406861
              0.380389    0.39195738617424

3 0
 s    3 1.00
            3.42525091    0.15432897070298
            0.62391373    0.53532814243847
             0.1688554    0.44463454202535

4 0
 s    3 1.00
            3.42525091    0.15432897070298
            0.62391373    0.53532814243847
             0.1688554    0.44463454202535

[5d]
[7f]
[9g]

[MO]
 Sym= A
 Ene=    -20.31036967
 Spin= Alpha
 Occup=    2.00000
   1    0.00053058332350047
   2    -0.0070358102343566
   3    -0.0039045338054215
   4    -0.0048210554779073
   5    1.0808817047194e-09
   6      0.99430309681335
   7     0.025775577810285
   8    -0.0034672786996536
   9    -0.0042811614264529
  10    5.9686438407421e-11
  11    0.00019166150720227
  12    0.00019165933742077
 Sym= A
 Ene=    -11.12308753
 Spin= Alpha
 Occup=    2.00000
   1      0.99262890586467
   2     0.032863576903057
   3    0.00032129109145211
   4    0.00039674632473747
   5    -1.2398525576795e-08
   6    0.00015174642661798
   7    -0.005680370920573
   8    0.0010754276645079
   9    0.0013278623602825
  10    8.9016448928729e-10
  11    -0.0065138654613204
  12    -0.0065138520752514
 Sym= A
 Ene=    -1.331693484
 Spin= Alpha
 Occup=    2.00000
   1     -0.12157966172778
   2      0.27784714388539
   3      0.09842192268455
   4      0.12152479154046
   5    -5.3591394940049e-08
   6     -0.21959638467543
   7      0.77175487924394
   8     -0.10519251628225
   9     -0.12988451416869
  10    -1.866625467864e-08
  11     0.031929142365743
  12     0.031929064961468
 Sym= A
 Ene=   -0.8072877046
 Spin= Alpha
 Occup=    2.00000
   1     -0.18619665409551
   2      0.57920680736032
   3     -0.14021412278252
   4     -0.17312541746101
   5    -7.1536029032268e-07
   6      0.09923958255969
   7     -0.43128838322755
   8     -0.10389020584987
   9      -0.1282761207264
  10    -2.9208461308438e-07
  11      0.26445648902166
  12      0.26445570128126
 Sym= A
 Ene=   -0.6315407922
 Spin= Alpha
 Occup=    2.00000
   1    -2.3474365017717e-07
   2    9.1576683868944e-07
   3    -0.015108061660672
   4     0.012235670516509
   5      0.53294428820237
   6    1.1049101152976e-07
   7    -5.1535318469395e-07
   8    -0.012342862826833
   9    0.0099957747201613
  10      0.43539320885466
  11     -0.30393466460586
  12      0.30393515091797
 Sym= A
 Ene=   -0.5424465238
 Spin= Alpha
 Occup=    2.00000
   1      0.03246789572945
   2     -0.10714782421828
   3     -0.28350661662842
   4     -0.35005272312911
   5    1.9268845184885e-08
   6    -0.092999430724209
   7      0.49418243221995
   8      0.42507025410235
   9      0.52484880337999
  10    2.1541023869869e-07
  11      0.16047517645724
  12      0.16047542335292
 Sym= A
 Ene=      -0.4383744
 Spin= Alpha
 Occup=    2.00000
   1    -3.7266506788427e-07
   2    1.5539080576469e-06
   3      0.47431070936616
   4     -0.38414219011991
   5      0.02226527795835
   6    -1.7919459872601e-08
   7    1.7100139243113e-07
   8      0.52519508467466
   9     -0.42534998988676
  10     0.024653837827298
  11    1.4035843979947e-07
  12    1.4035943233663e-07
 Sym= A
 Ene=   -0.3548123923
 Spin= Alpha
 Occup=    2.00000
   1    -6.0444070768251e-10
   2    -1.3404750757667e-07
   3     0.005073318238487
   4    -0.0041087103053543
   5     -0.17896287459527
   6    1.1028510953988e-08
   7    -7.2817126410155e-08
   8    -0.024773467635074
   9     0.020064016549661
  10      0.87390583240012
  11       0.3533742478472
  12     -0.35337448335441
 Sym= A
 Ene=    0.2795017849
 Spin= Alpha
 Occup=    0.00000
   1    -7.559970536846e-07
   2    4.1682763221315e-06
   3      0.63612654255456
   4     -0.51519689031207
   5     0.029861317183529
   6    4.6546487136747e-08
   7    -1.2270927154793e-07
   8      -0.5948112983802
   9       0.4817340694308
  10    -0.027921839961138
  11    -2.2521589159771e-06
  12    -2.2521629696263e-06
 Sym= A
 Ene=    0.6256340494
 Spin= Alpha
 Occup=    0.00000
   1     -0.20762087141699
   2       1.2969183251192
   3     -0.28089715210974
   4      -0.3468235717996
   5    6.2114467484322e-06
   6     0.027190492258106
   7     -0.15536938216955
   8      0.15176832184414
   9       0.1873896821327
  10    -2.0151285753655e-06
  11     -0.88901468164244
  12     -0.88902413685753
 Sym= A
 Ene=    0.7363977076
 Spin= Alpha
 Occup=    0.00000
   1    1.2397323620687e-06
   2    -8.4903059705825e-06
   3    -0.032593381231063
   4     0.026401845172765
   5       1.1498375391476
   6    -7.3838801593809e-08
   7    3.3488993555399e-07
   8    0.0088443518391135
   9    -0.0071638287828474
  10      -0.3120059714398
  11      0.84151842411061
  12     -0.84150598764607
 Sym= A
 Ene=    0.9006066572
 Spin= Alpha
 Occup=    0.00000
   1    -0.095680926050821
   2      0.62693953981506
   3      0.73086213943148
   4      0.90241797493197
   5    -8.7338311429404e-07
   6      0.11490292083077
   7     -0.84880383798052
   8      0.57965398158605
   9      0.71571808903507
  10    1.9621025040146e-07
  11      0.14807962893003
  12      0.14808137413766
