4
	Energy:       0.0541621
C         -4.96894        3.26264        0.00000
O         -4.19819        4.21431       -0.00000
H         -5.31239        2.78460       -0.93126
H         -5.36519        2.82736        0.93126
